LAMMPS data file via write_data, version 7 Feb 2024, timestep = 2, units = real

24 atoms
2 atom types
16 bonds
1 bond types
8 angles
1 angle types

0 4.9325 xlo xhi
0 4.9325 ylo yhi
0 4.9325 zlo zhi

Masses

1 15.9994
2 1.008

Pair Coeffs # lj/cut/coul/long

1 0.102 3.188
2 0 0

Bond Coeffs # harmonic

1 450 0.9572

Angle Coeffs # harmonic

1 55 104.52

Atoms # full

1 0 1 -0.834 2.1800393889283636 0.18327440489728386 4.1301300081336 0 0 0
2 0 2 0.417 2.2971781335563737 4.835165222556118 0.14269212066824555 0 0 0
3 0 2 0.417 1.81688912778724 1.0895444223881723 4.238427278540876 0 0 0
4 0 1 -0.834 4.6660074567024 0.09888077990650324 0.32185999932477966 0 0 0
5 0 2 0.417 4.672160718847385 4.912610206287138 4.278444619402373 0 -1 0
6 0 2 0.417 4.275768387178952 1.0067675410722663 0.40665371022102986 0 0 0
7 0 1 -0.834 3.6462284040992317 2.4101952262498187 0.36632813871071207 0 0 0
8 0 2 0.417 3.5211018055121133 2.185896707796246 4.338523622979585 0 0 0
9 0 2 0.417 4.268827015639686 3.148907966397115 0.3225575235164162 0 0 0
10 0 1 -0.834 1.2059820465286142 2.6138452095467084 4.134011566108353 0 0 0
11 0 2 0.417 1.4788310288848652 3.549398474445848 4.071767005137981 0 0 0
12 0 2 0.417 1.2100736092843132 2.4668376193678587 0.1832478609441926 0 0 0
13 0 1 -0.834 4.465487134390556 4.484996648425052 2.7634067011512693 0 0 0
14 0 2 0.417 4.535004430649955 4.495088794468332 1.7731856306445546 0 0 0
15 0 2 0.417 4.210392018234014 3.556725971085175 2.9376838550916244 0 0 0
16 0 1 -0.834 2.047694537098537 4.436738673301977 1.631913536864391 0 0 0
17 0 2 0.417 2.27068549414425 4.774935137450466 2.5182473772735707 0 0 0
18 0 2 0.417 1.6881343507759643 3.5345145948646177 1.8393533988526678 0 0 0
19 0 1 -0.834 3.732150594961406 1.9965218367880655 2.839571574111822 0 0 0
20 0 2 0.417 3.4075892707737423 2.2172347805697874 1.935609337746222 0 0 0
21 0 2 0.417 3.9209340920488933 1.0296932507794279 2.751843180376948 0 0 0
22 0 1 -0.834 1.2094101741934191 2.1007521618022973 1.6644585064630097 0 0 0
23 0 2 0.417 1.0156238258902335 2.2523360890750332 2.622730255538757 0 0 0
24 0 2 0.417 1.1684069538894926 1.1359251804787098 1.5915571921970462 0 0 0

Velocities

1 0 0 0
2 0 0 0
3 0 0 0
4 0 0 0
5 0 0 0
6 0 0 0
7 0 0 0
8 0 0 0
9 0 0 0
10 0 0 0
11 0 0 0
12 0 0 0
13 0 0 0
14 0 0 0
15 0 0 0
16 0 0 0
17 0 0 0
18 0 0 0
19 0 0 0
20 0 0 0
21 0 0 0
22 0 0 0
23 0 0 0
24 0 0 0

Bonds

1 1 1 2
2 1 1 3
3 1 4 5
4 1 4 6
5 1 7 8
6 1 7 9
7 1 10 11
8 1 10 12
9 1 13 14
10 1 13 15
11 1 16 17
12 1 16 18
13 1 19 20
14 1 19 21
15 1 22 23
16 1 22 24

Angles

1 1 2 1 3
2 1 5 4 6
3 1 8 7 9
4 1 11 10 12
5 1 14 13 15
6 1 17 16 18
7 1 20 19 21
8 1 23 22 24
