LAMMPS data file via write_data, version 7 Feb 2024, timestep = 2, units = real

24 atoms
2 atom types
16 bonds
1 bond types
8 angles
1 angle types

0 4.9325 xlo xhi
0 4.9325 ylo yhi
0 4.9325 zlo zhi

Masses

1 15.9994
2 1.008

Pair Coeffs # lj/cut/coul/long

1 0.102 3.188
2 0 0

Bond Coeffs # harmonic

1 450 0.9572

Angle Coeffs # harmonic

1 55 104.52

Atoms # full

1 0 1 -0.834 2.1802271858813764 0.18042631918961166 4.124602568770792 0 0 0
2 0 2 0.417 2.297029581679151 4.835135423018895 0.14638204707761143 0 0 0
3 0 2 0.417 1.8161195141127713 1.0916635213359274 4.2391894706162505 0 0 0
4 0 1 -0.834 4.667691654101558 0.09411984067415333 0.325420115300972 0 0 0
5 0 2 0.417 4.671652350197437 4.9130986794217115 4.275478508946286 0 -1 0
6 0 2 0.417 4.274417121534639 1.009547084389643 0.40579998462067773 0 0 0
7 0 1 -0.834 3.6452950287904597 2.4104440021691307 0.3711876773062892 0 0 0
8 0 2 0.417 3.5212304498677085 2.186360278943783 4.334737020967695 0 0 0
9 0 2 0.417 4.2694984897346435 3.1504176052584194 0.32142738870664894 0 0 0
10 0 1 -0.834 1.2043707076700385 2.612093053609962 4.129329058992942 0 0 0
11 0 2 0.417 1.4797841837789276 3.551836834220875 4.0728873092956 0 0 0
12 0 2 0.417 1.2106581050280483 2.4674738465539736 0.18689108367557244 0 0 0
13 0 1 -0.834 4.467193357601381 4.487593812466095 2.7681573651537663 0 0 0
14 0 2 0.417 4.535235348482236 4.494772359248398 1.7699013603882652 0 0 0
15 0 2 0.417 4.209696008414511 3.5539171447049585 2.9369086515302474 0 0 0
16 0 1 -0.834 2.049132674464712 4.441357108367564 1.6285226759442801 0 0 0
17 0 2 0.417 2.2709829729725213 4.77473949346424 2.521322255285163 0 0 0
18 0 2 0.417 1.6875471838260903 3.532032660351225 1.8396681210805501 0 0 0
19 0 1 -0.834 3.7317770742121423 2.000254371398599 2.8440115714707765 0 0 0
20 0 2 0.417 3.4068727599741875 2.216592445705125 1.9321777566221896 0 0 0
21 0 2 0.417 3.921330764911554 1.0268130612323063 2.7510103394877254 0 0 0
22 0 1 -0.834 1.2095915203137702 2.1012434907072213 1.660611068115127 0 0 0
23 0 2 0.417 1.014954754707252 2.2513203955281926 2.6263076707623862 0 0 0
24 0 2 0.417 1.1683112077428832 1.13353406803999 1.5922729298821867 0 0 0

Velocities

1 0 0 0
2 0 0 0
3 0 0 0
4 0 0 0
5 0 0 0
6 0 0 0
7 0 0 0
8 0 0 0
9 0 0 0
10 0 0 0
11 0 0 0
12 0 0 0
13 0 0 0
14 0 0 0
15 0 0 0
16 0 0 0
17 0 0 0
18 0 0 0
19 0 0 0
20 0 0 0
21 0 0 0
22 0 0 0
23 0 0 0
24 0 0 0

Bonds

1 1 1 2
2 1 1 3
3 1 4 5
4 1 4 6
5 1 7 8
6 1 7 9
7 1 10 11
8 1 10 12
9 1 13 14
10 1 13 15
11 1 16 17
12 1 16 18
13 1 19 20
14 1 19 21
15 1 22 23
16 1 22 24

Angles

1 1 2 1 3
2 1 5 4 6
3 1 8 7 9
4 1 11 10 12
5 1 14 13 15
6 1 17 16 18
7 1 20 19 21
8 1 23 22 24
